12
Optimized from SMILES: CC=CC | Energy: -4273.493688 eV | Charge: 0 | Multiplicity: 3
C -1.900595 0.450216 -0.639234
C -0.526495 0.530608 -0.103370
C 0.528262 -0.527150 -0.461806
C 1.900195 -0.451000 0.080194
H -2.657543 0.379571 0.153486
H -2.016685 -0.421879 -1.284155
H -2.169206 1.336974 -1.229126
H -0.235907 1.334041 0.559052
H 0.235625 -1.334592 -1.118427
H 2.168355 -1.336798 0.671650
H 2.016868 0.422236 0.723465
H 2.657128 -0.382228 -0.712767
