12
Optimized from SMILES: CC=CC | Energy: -4273.493688 eV | Charge: 0 | Multiplicity: 3
C     -1.9005950000    0.4502160000   -0.6392340000
C     -0.5264950000    0.5306080000   -0.1033700000
C      0.4954239479   -0.7881417480   -0.2154229594
C      1.9308878903   -0.4499872239   -0.2982345951
H     -2.6575430000    0.3795710000    0.1534860000
H     -2.0166850000   -0.4218790000   -1.2841550000
H     -2.1692060000    1.3369740000   -1.2291260000
H     -0.2359070000    1.3340410000    0.5590520000
H      0.0942915852   -1.2946010127    0.6513768880
H      2.2566221436    0.2044912910    0.5214745924
H      2.1576011119    0.0590031239   -1.2360411962
H      2.5716063212   -1.3402964303   -0.2408437298
